<?xml version="1.0" encoding="UTF-8"?>

<!-- generated on Di 05 Feb 2019 19:08:19 CET by SUMO gui Version 0.30.0
<?xml version="1.0" encoding="UTF-8"?>

<configuration xmlns:xsi="http://www.w3.org/2001/XMLSchema-instance" xsi:noNamespaceSchemaLocation="http://sumo.dlr.de/xsd/sumoConfiguration.xsd">

    <input>
        <net-file value="erlangen.net.xml"/>
        <route-files value="trip.rou.xml"/>
        <additional-files value="erlangen.poly.xml"/>
    </input>

    <output>
        <tripinfo-output value="true"/>
    </output>

    <time>
        <begin value="0"/>
        <end value="85000"/>
        <step-length value="1"/>
    </time>

    <report>
        <no-step-log value="true"/>
    </report>

    <gui_only>
        <start value="true"/>
    </gui_only>

</configuration>
-->

<tripinfos xmlns:xsi="http://www.w3.org/2001/XMLSchema-instance" xsi:noNamespaceSchemaLocation="http://sumo.dlr.de/xsd/tripinfo_file.xsd">
</tripinfos>
